3
Lattice="3.3197487878576672 0.0 0.0 -1.6598743939288336 2.8749867844673367 0.0 0.0 0.0 18.33805895352641" Properties=species:S:1:pos:R:3 energy=-20.291055724621312 dipole="4.173298037676294 -2.409454745460953 -5.958587685442014e-14" free_energy=-20.291055739467165 pbc="T T F"
Mo       0.00000000       0.00000000       9.16902948
Se       1.65987439       0.95832893      10.83805895
Se       1.65987439       0.95832893       7.50000000
