3
Lattice="3.55007622207136 0.0 0.0 -1.77503811103568 3.074456193684884 0.0 0.0 0.0 18.62392442646693" Properties=species:S:1:pos:R:3 energy=-18.223252816143983 dipole="5.732277216130104 -3.309531793802275 -2.0035197377964572e-09" free_energy=-18.22325308674805 pbc="T T F"
W        0.00000000       0.00000000       9.31196221
Te       1.77503811       1.02481873      11.12392443
Te       1.77503811       1.02481873       7.50000000
